% Model:              Fundamental_Focused_Aluminum_Electrodes_300nm_3.4MHz_to_4.2MHz_1kHz_Stepping_Mechanical_Damping_Used_1e-3_1cm_Diam_Electrodes.mph
% Version:            COMSOL 5.0.1.276
% Date:               Feb 17 2021, 11:02
% Table:              Table 7 - Global Evaluation 1 (es2.Y11)
% freq (Hz)              20*log10(abs((1/es2.Y11 - 50)/(1/es2.Y11 + 50)))
3400000                  -0.023609891527650376
3401000                  -0.024169233698793147
3402000                  -0.024902054590754816
3403000                  -0.02471588039827714
3404000                  -0.02407130626351218
3405000                  -0.023791938476227313
3406000                  -0.023788271804840277
3407000                  -0.02394540148578911
3408000                  -0.024073931678953688
3409000                  -0.024162617827892245
3410000                  -0.024358883383004976
3411000                  -0.024764024730010013
3412000                  -0.025281826457512042
3413000                  -0.025530231108803172
3414000                  -0.025572585582207395
3415000                  -0.02549632047643309
3416000                  -0.02546829645709702
3417000                  -0.0255594349140518
3418000                  -0.02542203870021499
3419000                  -0.025289523068133427
3420000                  -0.025290546189926676
3421000                  -0.025372198904342565
3422000                  -0.025492096259625383
3423000                  -0.025657230119101322
3424000                  -0.02587130674841192
3425000                  -0.026116608638363813
3426000                  -0.02639788608817976
3427000                  -0.02681186723807825
3428000                  -0.027472731744821333
3429000                  -0.02836088142452451
3430000                  -0.029707303977277895
3431000                  -0.030389261220227656
3432000                  -0.029650710033021437
3433000                  -0.029009900575549426
3434000                  -0.028825491970997597
3435000                  -0.029166778232675782
3436000                  -0.0299645347259514
3437000                  -0.03114575935101669
3438000                  -0.03126778184579834
3439000                  -0.03030678487970048
3440000                  -0.02994355390994007
3441000                  -0.030206727192229166
3442000                  -0.030497405235029126
3443000                  -0.03085271856041115
3444000                  -0.03160690117728367
3445000                  -0.03321197072285718
3446000                  -0.03565006536898783
3447000                  -0.03606702254609861
3448000                  -0.03386820981009569
3449000                  -0.032036189596507225
3450000                  -0.03128020274256686
3451000                  -0.03120050791189209
3452000                  -0.031249881617562526
3453000                  -0.0312380714910016
3454000                  -0.03154142691519185
3455000                  -0.03183358639126968
3456000                  -0.03181497490602419
3457000                  -0.032096679556206834
3458000                  -0.032846886805641996
3459000                  -0.03354711194234277
3460000                  -0.03334312379066102
3461000                  -0.03337152136272434
3462000                  -0.03387600638725697
3463000                  -0.034643831095160685
3464000                  -0.03531443389447951
3465000                  -0.03564806590669356
3466000                  -0.03622706583693075
3467000                  -0.036060720279277876
3468000                  -0.03537432663137963
3469000                  -0.03514742139250156
3470000                  -0.0353455146100054
3471000                  -0.03631846758017005
3472000                  -0.03809399084084948
3473000                  -0.038752388381821205
3474000                  -0.03827481320122335
3475000                  -0.03810369248241906
3476000                  -0.03731512917696375
3477000                  -0.036960214542878136
3478000                  -0.036956258929830954
3479000                  -0.03726218764890103
3480000                  -0.03739305547064897
3481000                  -0.037484341414154534
3482000                  -0.03798763871341804
3483000                  -0.0386679658432993
3484000                  -0.039405397054711855
3485000                  -0.040055334116889316
3486000                  -0.04073949127909277
3487000                  -0.04026832811139944
3488000                  -0.03968020428153923
3489000                  -0.03984226714164622
3490000                  -0.04011064254058804
3491000                  -0.040382227190352976
3492000                  -0.04136221495834545
3493000                  -0.042357101263604806
3494000                  -0.04177245473474754
3495000                  -0.04100826824649145
3496000                  -0.040453183267075685
3497000                  -0.040111534540204434
3498000                  -0.04014960896149846
3499000                  -0.04043359788730719
3500000                  -0.04061970713064955
3501000                  -0.04072713551023451
3502000                  -0.04095962868462652
3503000                  -0.04135056138766546
3504000                  -0.04198822556432019
3505000                  -0.04310289721471038
3506000                  -0.04505085513123821
3507000                  -0.046928623863301044
3508000                  -0.046203173887906825
3509000                  -0.044894553110384525
3510000                  -0.04464054101583527
3511000                  -0.04530002802236334
3512000                  -0.045777303957835545
3513000                  -0.04511254538395368
3514000                  -0.04463882634635938
3515000                  -0.044590402411213086
3516000                  -0.04479615041449065
3517000                  -0.04513583828980975
3518000                  -0.04549643498020789
3519000                  -0.0460199609625064
3520000                  -0.04686602960666881
3521000                  -0.04803512078791411
3522000                  -0.049440303006418676
3523000                  -0.050429028967020034
3524000                  -0.049819088851188915
3525000                  -0.04919853525919539
3526000                  -0.049336449455301794
3527000                  -0.05033268757593479
3528000                  -0.05143500517043356
3529000                  -0.05097501421338928
3530000                  -0.05044179936581236
3531000                  -0.05065921573079771
3532000                  -0.051251663497861664
3533000                  -0.051250978725930665
3534000                  -0.05112099472742199
3535000                  -0.05131085651126342
3536000                  -0.051678642422717073
3537000                  -0.052320381205406705
3538000                  -0.053205653899727305
3539000                  -0.05394021972657159
3540000                  -0.05406322169435984
3541000                  -0.054091062349888135
3542000                  -0.05428803279248529
3543000                  -0.05489744242171718
3544000                  -0.05597178973750393
3545000                  -0.05671826310817735
3546000                  -0.05697132106500895
3547000                  -0.05728758313932064
3548000                  -0.057181534835123685
3549000                  -0.057249859831610864
3550000                  -0.05774224816120199
3551000                  -0.05871027735405345
3552000                  -0.06013761558258537
3553000                  -0.06146549655445293
3554000                  -0.06205360369544646
3555000                  -0.06151716657610776
3556000                  -0.061503647556954
3557000                  -0.06229760545089682
3558000                  -0.0639313066893584
3559000                  -0.06621773688741925
3560000                  -0.0672001581039567
3561000                  -0.06795880422333285
3562000                  -0.06841572911320672
3563000                  -0.06842457150441456
3564000                  -0.06936884354637675
3565000                  -0.06979935651248009
3566000                  -0.07062992038749409
3567000                  -0.07282577127375442
3568000                  -0.07663340574340897
3569000                  -0.07765330838196625
3570000                  -0.0769925972757039
3571000                  -0.07766462149890742
3572000                  -0.07729560548273418
3573000                  -0.0756081632983442
3574000                  -0.07490127552139023
3575000                  -0.07551907434198052
3576000                  -0.07706441702872507
3577000                  -0.07970694338162644
3578000                  -0.08481286915792959
3579000                  -0.09488351282956416
3580000                  -0.10743106028636963
3581000                  -0.10768492364917429
3582000                  -0.09803369256359669
3583000                  -0.09091165501449133
3584000                  -0.08522422403544068
3585000                  -0.08195648793016388
3586000                  -0.0807717970502628
3587000                  -0.08099371167325409
3588000                  -0.08265069583290677
3589000                  -0.08564619080067455
3590000                  -0.08649129607298386
3591000                  -0.08500551240673346
3592000                  -0.08498044895916357
3593000                  -0.08641852257059977
3594000                  -0.08803456270419444
3595000                  -0.08982597321585088
3596000                  -0.09269531869071168
3597000                  -0.09148259193392697
3598000                  -0.08849816407980297
3599000                  -0.08727499247836229
3600000                  -0.08740060879410137
3601000                  -0.0879918779890114
3602000                  -0.08798618764384648
3603000                  -0.08800376400524286
3604000                  -0.08840053537727115
3605000                  -0.08898722453506769
3606000                  -0.08971378405564784
3607000                  -0.09064218976204823
3608000                  -0.09184564598259695
3609000                  -0.09336103338862105
3610000                  -0.0951931567295166
3611000                  -0.09664553972211404
3612000                  -0.09697640672810542
3613000                  -0.0976796381848771
3614000                  -0.09883062597064418
3615000                  -0.10001866421696964
3616000                  -0.10168062990124832
3617000                  -0.10333338509670709
3618000                  -0.10573431617699434
3619000                  -0.10759835320869159
3620000                  -0.10699638021937871
3621000                  -0.10683914872122666
3622000                  -0.1080805413628659
3623000                  -0.10990242448792598
3624000                  -0.11329776620091318
3625000                  -0.1171851609206541
3626000                  -0.11630784448609745
3627000                  -0.11370261210698963
3628000                  -0.11246323349471529
3629000                  -0.11258395742016912
3630000                  -0.11300696754635467
3631000                  -0.11333898533028434
3632000                  -0.11402018037109019
3633000                  -0.11508636760228856
3634000                  -0.11657160202024987
3635000                  -0.11840361079070437
3636000                  -0.11949654919118148
3637000                  -0.11997774666852686
3638000                  -0.1209111258513576
3639000                  -0.12200696948223642
3640000                  -0.12281108045509437
3641000                  -0.12366855605058917
3642000                  -0.1247847356722333
3643000                  -0.12608388960685835
3644000                  -0.1273761385579474
3645000                  -0.12878784339561847
3646000                  -0.13021796594473858
3647000                  -0.1312074384426849
3648000                  -0.13217562449964854
3649000                  -0.13331826409425848
3650000                  -0.13458453916294083
3651000                  -0.13593069103869007
3652000                  -0.137307006022372
3653000                  -0.13869012163844066
3654000                  -0.14007072035431334
3655000                  -0.14150690740913022
3656000                  -0.14300760481019406
3657000                  -0.1446041097494453
3658000                  -0.14634032811242131
3659000                  -0.1482280568533888
3660000                  -0.15018350954186
3661000                  -0.15203781486209947
3662000                  -0.15362598048620071
3663000                  -0.1550650341255223
3664000                  -0.1567324379787369
3665000                  -0.15860510593498994
3666000                  -0.16105736464126585
3667000                  -0.16449052055261348
3668000                  -0.1686133824721726
3669000                  -0.1710297345730178
3670000                  -0.17092288395120736
3671000                  -0.17118486580399164
3672000                  -0.1722084563414643
3673000                  -0.17323112756799378
3674000                  -0.17492893437050677
3675000                  -0.17746902265076106
3676000                  -0.18017484115169322
3677000                  -0.1814355080418201
3678000                  -0.1826275896517476
3679000                  -0.1849706421606198
3680000                  -0.1884647040439992
3681000                  -0.19169467940328894
3682000                  -0.19202241918691032
3683000                  -0.19199308518334998
3684000                  -0.1928240485580946
3685000                  -0.19425137930846348
3686000                  -0.1960909028075339
3687000                  -0.1982930983822467
3688000                  -0.20096674102959672
3689000                  -0.20418465126760946
3690000                  -0.20721510479899552
3691000                  -0.20917000190137308
3692000                  -0.2106433852408916
3693000                  -0.21176903310447626
3694000                  -0.21339944322233712
3695000                  -0.21532131574520277
3696000                  -0.21716960559345175
3697000                  -0.21926692220960958
3698000                  -0.22163984615595578
3699000                  -0.22401187938318676
3700000                  -0.22638364644845715
3701000                  -0.2288358115972627
3702000                  -0.2308682486418277
3703000                  -0.23279336499283518
3704000                  -0.23494460990521654
3705000                  -0.237226526454172
3706000                  -0.23959077740542062
3707000                  -0.24204894917382608
3708000                  -0.2446133093830474
3709000                  -0.247307740729932
3710000                  -0.2500195149732418
3711000                  -0.25258487654367945
3712000                  -0.2552240293589731
3713000                  -0.25802176815399236
3714000                  -0.26107103254604924
3715000                  -0.26458376002288764
3716000                  -0.26883104644595557
3717000                  -0.2744514934348741
3718000                  -0.2798117618555942
3719000                  -0.2805574997729413
3720000                  -0.2809400807908274
3721000                  -0.28316947949726456
3722000                  -0.2868643700576409
3723000                  -0.29213874508067483
3724000                  -0.29828316210339
3725000                  -0.303312111482546
3726000                  -0.3073778619201923
3727000                  -0.312269563970902
3728000                  -0.3145194948111102
3729000                  -0.31272237156805405
3730000                  -0.31192153768899994
3731000                  -0.31246989230887223
3732000                  -0.3144934423512333
3733000                  -0.3177395208585651
3734000                  -0.32209010624492945
3735000                  -0.32674500513122984
3736000                  -0.32964015338314245
3737000                  -0.3308039220500292
3738000                  -0.33273312391324306
3739000                  -0.3356503084852056
3740000                  -0.33920514600710816
3741000                  -0.3432381943177558
3742000                  -0.3477835856933315
3743000                  -0.353032156379453
3744000                  -0.3585326853753633
3745000                  -0.3630431372000852
3746000                  -0.36768066822106815
3747000                  -0.37326596834664594
3748000                  -0.3797835478328305
3749000                  -0.3870852576401987
3750000                  -0.3948314079687421
3751000                  -0.4034001871265949
3752000                  -0.4132639731326887
3753000                  -0.42481202862443784
3754000                  -0.4383255691141268
3755000                  -0.45427553494998835
3756000                  -0.4735073032831446
3757000                  -0.4969080061655671
3758000                  -0.5256478393818558
3759000                  -0.5620840236997079
3760000                  -0.6096135560140815
3761000                  -0.6732703732305821
3762000                  -0.7612671259224717
3763000                  -0.8876251165273856
3764000                  -1.0780418013789754
3765000                  -1.3807956193532873
3766000                  -1.895267557442883
3767000                  -2.8464003325872973
3768000                  -4.7270844176036615
3769000                  -8.013807907560722
3770000                  -8.453858254337854
3771000                  -5.128087309291443
3772000                  -3.063994391266458
3773000                  -2.021586018134791
3774000                  -1.4665560491337537
3775000                  -1.1482109683587534
3776000                  -0.9488314177802747
3777000                  -0.8162586949192135
3778000                  -0.7263550230155393
3779000                  -0.6635209241773139
3780000                  -0.6186736957736281
3781000                  -0.5863934929082275
3782000                  -0.5630200088570433
3783000                  -0.5450300554413294
3784000                  -0.5313069017647994
3785000                  -0.5219697918009194
3786000                  -0.5161728319155735
3787000                  -0.5128282739480311
3788000                  -0.5120144538372171
3789000                  -0.5135869996566693
3790000                  -0.5172418907123365
3791000                  -0.5230419673718018
3792000                  -0.5312530451210934
3793000                  -0.5435608548727232
3794000                  -0.5576494764044494
3795000                  -0.5679909426382055
3796000                  -0.5804161182265765
3797000                  -0.5977081219983935
3798000                  -0.6199200474037868
3799000                  -0.6478006438426092
3800000                  -0.6819239915386105
3801000                  -0.7235938836622551
3802000                  -0.7748811476935664
3803000                  -0.8371183874144448
3804000                  -0.9132646038603498
3805000                  -1.0100280328369091
3806000                  -1.1352943824709494
3807000                  -1.3010214436424292
3808000                  -1.528880699187348
3809000                  -1.8580792044055219
3810000                  -2.3558969554798828
3811000                  -3.0560787634902447
3812000                  -3.692381906376135
3813000                  -4.264596326632074
3814000                  -5.262884625876549
3815000                  -6.881325557427864
3816000                  -8.96301494950611
3817000                  -10.524006240059965
3818000                  -9.819143032931546
3819000                  -7.672588804057412
3820000                  -5.713105762281278
3821000                  -4.282715762112007
3822000                  -3.2877713582620705
3823000                  -2.5962582445589137
3824000                  -2.106903340231392
3825000                  -1.755042846886192
3826000                  -1.4954282302967914
3827000                  -1.2860229665679324
3828000                  -1.1206411561434888
3829000                  -0.9938205320733533
3830000                  -0.8909911149015275
3831000                  -0.8067770827737663
3832000                  -0.7392879908554733
3833000                  -0.6850226295685312
3834000                  -0.6414118907359851
3835000                  -0.6072243276510868
3836000                  -0.5830684940208807
3837000                  -0.5696723886403959
3838000                  -0.5592774782850483
3839000                  -0.5414559913137793
3840000                  -0.512342669252517
3841000                  -0.4862999505469363
3842000                  -0.469242568728157
3843000                  -0.4568962504883466
3844000                  -0.4488877451393119
3845000                  -0.44555163917208984
3846000                  -0.44649447776299456
3847000                  -0.44854432789711474
3848000                  -0.44918976593537024
3849000                  -0.4530330636846476
3850000                  -0.463845126078034
3851000                  -0.4836278967015151
3852000                  -0.515160015435948
3853000                  -0.5649394984638261
3854000                  -0.6322591056233178
3855000                  -0.6921898700119642
3856000                  -0.7535525183749119
3857000                  -0.8559782311402058
3858000                  -1.0344906286016327
3859000                  -1.3467379735697276
3860000                  -1.913076476489091
3861000                  -2.9819122701569007
3862000                  -4.737091633794562
3863000                  -5.567924483637032
3864000                  -4.340038576672635
3865000                  -3.5569712368060435
3866000                  -3.887086577555942
3867000                  -5.349956667515997
3868000                  -6.512846916742506
3869000                  -4.827691431152919
3870000                  -2.9550076814987984
3871000                  -1.9093613389552277
3872000                  -1.3585147977618708
3873000                  -1.0613951777269834
3874000                  -0.9141394082208478
3875000                  -0.8729902835131541
3876000                  -0.8413264008703515
3877000                  -0.730940009586025
3878000                  -0.6215648886968534
3879000                  -0.5301944846996056
3880000                  -0.4574628571379311
3881000                  -0.40660245866639555
3882000                  -0.3678503373963927
3883000                  -0.34388971175967475
3884000                  -0.3348944389906395
3885000                  -0.3329037661122348
3886000                  -0.3133987689335121
3887000                  -0.28553405712853913
3888000                  -0.2659742898314705
3889000                  -0.2529876738650503
3890000                  -0.24273772763239976
3891000                  -0.2344416092923992
3892000                  -0.22844410663219594
3893000                  -0.22451942331893454
3894000                  -0.2223938567216719
3895000                  -0.22198337742638827
3896000                  -0.22427813916148095
3897000                  -0.22969130137252713
3898000                  -0.2408943024887815
3899000                  -0.2626350562211462
3900000                  -0.28955109008685453
3901000                  -0.32673999250189234
3902000                  -0.3933877770458883
3903000                  -0.4458761258919463
3904000                  -0.40996797950994945
3905000                  -0.3459355202513521
3906000                  -0.31429298827291485
3907000                  -0.2885212283577348
3908000                  -0.25412482709850476
3909000                  -0.23214137782036698
3910000                  -0.22214646092841
3911000                  -0.2188514033773601
3912000                  -0.217637496359248
3913000                  -0.22060130263674246
3914000                  -0.23079624832400225
3915000                  -0.25182386383909755
3916000                  -0.2908935383704178
3917000                  -0.36214542204425465
3918000                  -0.4816634887365776
3919000                  -0.606503061361392
3920000                  -0.5925548400624241
3921000                  -0.48420832966506905
3922000                  -0.39471806396636144
3923000                  -0.3285473874749612
3924000                  -0.28304786510274416
3925000                  -0.2593929273019402
3926000                  -0.24722311992019175
3927000                  -0.2456950884662434
3928000                  -0.2503841237814725
3929000                  -0.2533594129684438
3930000                  -0.25593135173720627
3931000                  -0.25835338776051686
3932000                  -0.26621949916199883
3933000                  -0.28524908029979357
3934000                  -0.311850126234019
3935000                  -0.327070196347372
3936000                  -0.33232657043862635
3937000                  -0.35207043638806496
3938000                  -0.3946610019592694
3939000                  -0.4695422555424239
3940000                  -0.5804434857693676
3941000                  -0.657039586774461
3942000                  -0.6595953631590602
3943000                  -0.6924951613766652
3944000                  -0.7911848680469853
3945000                  -0.9653101306656221
3946000                  -1.2512258995257317
3947000                  -1.7272409697003743
3948000                  -2.5582171221810617
3949000                  -4.098177532017899
3950000                  -6.946436603181175
3951000                  -10.645464162033878
3952000                  -8.375380661837417
3953000                  -4.91052621168997
3954000                  -3.049636077054631
3955000                  -2.067002932169481
3956000                  -1.5161143439404998
3957000                  -1.206657705960568
3958000                  -1.0390983355635632
3959000                  -0.9792544445145832
3960000                  -1.024684638201612
3961000                  -1.2078289819863341
3962000                  -1.615826923040009
3963000                  -2.4280263862524727
3964000                  -3.6085735940450645
3965000                  -3.6934039291482756
3966000                  -2.50688428889696
3967000                  -1.5945056498477799
3968000                  -1.0748001151488205
3969000                  -0.7849021901954827
3970000                  -0.6185435721651323
3971000                  -0.5189193284253869
3972000                  -0.46197545035425586
3973000                  -0.43110743123432915
3974000                  -0.4156993768388223
3975000                  -0.4246815635551127
3976000                  -0.47238457328388106
3977000                  -0.5837995194587274
3978000                  -0.7992916681846839
3979000                  -1.0583650659973556
3980000                  -1.0293390009147108
3981000                  -0.835653586881129
3982000                  -0.7826768660079728
3983000                  -0.8795337896383375
3984000                  -0.9879937230559467
3985000                  -1.0075557568794526
3986000                  -1.0964610248230524
3987000                  -1.2178806466093093
3988000                  -1.0272743180182868
3989000                  -0.7002214782388227
3990000                  -0.49289191269573196
3991000                  -0.38017928984043525
3992000                  -0.31294479904469963
3993000                  -0.2702377448179739
3994000                  -0.24097479963846236
3995000                  -0.22224519951885463
3996000                  -0.20996685515926444
3997000                  -0.20019584580622837
3998000                  -0.19321652162811453
3999000                  -0.19117079102032764
4000000                  -0.1951524509062934
4001000                  -0.20521125664992632
4002000                  -0.2172988052634078
4003000                  -0.2283606926106269
4004000                  -0.22726289844979072
4005000                  -0.22295470184728966
4006000                  -0.22452754539788902
4007000                  -0.23604596479266432
4008000                  -0.2588109946032644
4009000                  -0.292750736668102
4010000                  -0.3350193482587853
4011000                  -0.384550346002856
4012000                  -0.4563380237119533
4013000                  -0.5803888790903241
4014000                  -0.7981065351406823
4015000                  -1.1794414308704717
4016000                  -1.8073855847480222
4017000                  -2.427732343072519
4018000                  -2.3434570227505667
4019000                  -1.9836495955256392
4020000                  -1.7792593095831557
4021000                  -1.9477892171519668
4022000                  -2.5180055187440797
4023000                  -3.099151267460204
4024000                  -3.128952194515549
4025000                  -2.6895362269281216
4026000                  -2.0796680552216
4027000                  -1.3907719663483857
4028000                  -0.9267850238662474
4029000                  -0.664219347585952
4030000                  -0.5151051610020958
4031000                  -0.4243033223351611
4032000                  -0.3635308992781465
4033000                  -0.32296349807217717
4034000                  -0.2925922212477711
4035000                  -0.27424316991463243
4036000                  -0.2722072575748812
4037000                  -0.28917082478806727
4038000                  -0.32322302672126274
4039000                  -0.3526842240887573
4040000                  -0.3632605098312299
4041000                  -0.3892565016572178
4042000                  -0.4404479548075105
4043000                  -0.5102936953507542
4044000                  -0.5693015650317237
4045000                  -0.6073087704851147
4046000                  -0.615426814309171
4047000                  -0.6271492791706439
4048000                  -0.6155192748840668
4049000                  -0.5437773651285648
4050000                  -0.4900251024892256